
                                 *****************
                                 * O   R   C   A *
                                 *****************

                                            #,                                       
                                            ###                                      
                                            ####                                     
                                            #####                                    
                                            ######                                   
                                           ########,                                 
                                     ,,################,,,,,                         
                               ,,#################################,,                 
                          ,,##########################################,,             
                       ,#########################################, ''#####,          
                    ,#############################################,,   '####,        
                  ,##################################################,,,,####,       
                ,###########''''           ''''###############################       
              ,#####''   ,,,,##########,,,,          '''####'''          '####       
            ,##' ,,,,###########################,,,                        '##       
           ' ,,###''''                  '''############,,,                           
         ,,##''                                '''############,,,,        ,,,,,,###''
      ,#''                                            '''#######################'''  
     '                                                          ''''####''''         
             ,#######,   #######,   ,#######,      ##                                
            ,#'     '#,  ##    ##  ,#'     '#,    #''#        ,####,    ,#,          
            ##       ##  ##   ,#'  ##            #'  '#       #'       ,# #          
            ##       ##  #######   ##           ,######,      #####,      #          
            '#,     ,#'  ##    ##  '#,     ,#' ,#      #,     #,   #      #          
             '#######'   ##     ##  '#######'  #'      '#     '####' #    #          



                #########################################################
                #                        -***-                          #
                #          Department of theory and spectroscopy        #
                #                                                       #
                #                      Frank Neese                      #
                #                                                       #
                #     Directorship, Architecture, Infrastructure        #
                #                    SHARK, DRIVERS                     #
                #        Core code/Algorithms in most modules           #
                #                                                       #
                #        Max Planck Institute fuer Kohlenforschung      #
                #                Kaiser Wilhelm Platz 1                 #
                #                 D-45470 Muelheim/Ruhr                 #
                #                      Germany                          #
                #                                                       #
                #                  All rights reserved                  #
                #                        -***-                          #
                #########################################################


                         Program Version 6.1.0  -  RELEASE   -
                                (GIT: $679e74b$)
                          ($2025-06-10 18:02:51 +0200$)


 With contributions from (in alphabetic order):
[Max-Planck-Institut fuer Kohlenforschung]                               
  Daniel Aravena         : Magnetic Suceptibility                        
  Michael Atanasov       : Ab Initio Ligand Field Theory (pilot matlab implementation)
  Alexander A. Auer      : GIAO ZORA, VPT2 properties, NMR spectrum      
  Ute Becker             : All parallelization in ORCA, NUMFREQ, NUMCALC 
  Giovanni Bistoni       : ED, misc. LED, open-shell LED, HFLD           
  Dmytro Bykov           : pre 5.0 version of the SCF Hessian            
  Marcos Casanova-Páez   : Triplet and SCS-CIS(D). UHF-(DLPNO)-IP/EA/STEOM-CCSD. UHF-CVS-IP/STEOM-CCSD   
  Vijay G. Chilkuri      : MRCI spin determinant printing, contributions to CSF-ICE 
  Pauline Colinet        : FMM embedding                                 
  Dipayan Datta          : RHF DLPNO-CCSD density                        
  Achintya Kumar Dutta   : EOM-CC, STEOM-CC                              
  Nicolas Foglia         : Exact transition moments, OPA infrastructure, MCD improvements    
  Dmitry Ganyushin       : Spin-Orbit,Spin-Spin,Magnetic field MRCI      
  Miquel Garcia-Rates    : C-PCM and meta-GGA Hessian, CCSD/C-PCM, Gaussian charge scheme 
  Tiago L. C. Gouveia    : GS-ROHF, GS-ROCIS                             
  Yang Guo               : DLPNO-NEVPT2, F12-NEVPT2, CIM, IAO-localization        
  Andreas Hansen         : Spin unrestricted coupled pair/coupled cluster methods 
  Ingolf Harden          : AUTO-CI MPn and infrastructure                
  Benjamin Helmich-Paris : MC-RPA, TRAH-(SCF,CASSCF), AVAS, COSX integrals, SCF dyn. polar., MC-PDFT, srDFT 
  Lee Huntington         : MR-EOM, pCC                                   
  Robert Izsak           : Overlap fitted RIJCOSX, COSX-SCS-MP3, EOM     
  Riya Kayal             : Wick's Theorem for AUTO-CI, AUTO-CI UHF-CCSDT 
  Emily Kempfer          : AUTO-CI RHF CISDT and CCSDT, approximate NEVPT4
  Christian Kollmar      : KDIIS, OOCD, Brueckner-CCSD(T), CCSD density, CASPT2, CASPT2-K, improved NEVPT2 
  Axel Koslowski         : Symmetry handling                             
  Simone Kossmann        : meta-GGA functionals, TD-DFT gradient, OOMP2, (MP2 Hessian; deprecated post 5.0) 
  Lucas Lang             : DCDCAS, Hyperfine gauge corrections, ICE-SOC+SSC
  Marvin Lechner         : AUTO-CI (C++ implementation), FIC-MRCC        
  Spencer Leger          : CASSCF response                               
  Dagmar Lenk            : GEPOL surface, SMD, ORCA-2-JSON               
  Dimitrios Liakos       : Extrapolation schemes; Compound Job, Property file
  Dimitrios Manganas     : Further ROCIS development; embedding schemes. LFT, Crystal Embedding 
  Dimitrios Pantazis     : SARC Basis sets                               
  Anastasios Papadopoulos: AUTO-CI, single reference methods and gradients 
  Taras Petrenko         : pre 6.0 DFT Hessian and TD-DFT gradient,  ECA, NRVS 
  Petra Pikulova         : Analytic Raman intensities                    
  Peter Pinski           : DLPNO-MP2, DLPNO-MP2 Gradient                 
  Shashank Vittal Rao    : ES-AILFT, MagRelax                            
  Christoph Reimann      : Effective Core Potentials                     
  Marius Retegan         : Local ZFS, SOC                                
  Christoph Riplinger    : Optimizer, TS searches, QM/MM, DLPNO-CCSD(T), (RO)-DLPNO pert. Triples 
  Michael Roemelt        : Original ROCIS implementation, recursive CI coupling coefficients
  Masaaki Saitow         : Open-shell DLPNO-CCSD energy and density      
  Barbara Sandhoefer     : DKH picture change effects                    
  Yorick L. A. Schmerwitz: GMF and freeze-and-release deltaSCF, NEB S-IDPP initial path                    
  Kantharuban Sivalingam : CASSCF convergence/infrastructure, NEVPT2, NEVPT3, NEVPT4(SD), FIC-MRCI and CEPA variants
  Bernardo de Souza      : ESD, SOC TD-DFT                               
  Georgi L. Stoychev     : AutoAux, RI-MP2 NMR, DLPNO-MP2 response, X2C  
  Van Anh Tran           : RI-MP2 g-tensors                              
  Willem Van den Heuvel  : Paramagnetic NMR                              
  Zikuan Wang            : NOTCH, Electric field optimization            
  Frank Wennmohs         : Technical directorship and infrastructure     
  Hang Xu                : AUTO-CI-Response properties                   
                                                                         
[FACCTs GmbH]                                                            
  Markus Bursch, Nicolas Foglia, Miquel Garcia-Rates, Ingolf Harden, Hagen Neugebauer, Anastasios Papadopoulos, 
  Christoph Riplinger, Bernardo de Souza, Georgi L. Stoychev                                                    
                                                                 
  APM, various basis sets, CI-OPT, improved COSX, DLPNO-Multilevel,           
  DOCKER, DRACO, updates on ESD, Fragmentator, GOAT, IRC, LR-CPCM, L-BFGS, MBIS, meta-GGA TD-DFT gradient, ML-optimized integration grids, 
  MM, NACMEs, nearIR, NEB, NEB-TS, NL-DFT gradient (VV10), 2- and 3-layer-ONIOM, interface openCOSMO-RS, QMMM,   
  Crystal-QMMM, RESP, rigid body optimization, SF, symmetry and pop. for TD-DFT, various functionals, SOLVATOR                                   
                                                                         
[Other institutions]                                                     
  V. Asgeirsson          : NEB                                           
  Christoph Bannwarth    : sTDA-DFT, sTD-DFT, PBEh-3c, B97-3c, D3        
  Giovanni Bistoni       : ETS/NOCV, ADLD/ADEX, COVALED                  
  Martin Brehm           : Molecular dynamics                            
  Ronald Cardenas        : ETS/NOCV                                      
  Martina Colucci        : COVALED                                       
  Sebastian Ehlert       : rSCAN, r2SCAN, r2SCAN-3c, D4, dhf basis sets  
  Marvin Friede          : D4 for Fr, Ra, Ac-Lr                          
  Lars Goerigk           : TD-DFT with DH, B97 family of functionals     
  Stefan Grimme          : VdW corrections, initial TS optimization, DFT functionals, gCP, sTDA/sTD-DF 
  Waldemar Hujo          : DFT-NL                                        
  H. Jonsson             : NEB                                           
  Holger Kruse           : gCP                                           
  Marcel Mueller         : wB97X-3c, vDZP basis set                      
  Hagen Neugebauer       : wr2SCAN, Native XTB                           
  Gianluca Regni         : ADLD/ADEX                                     
  Tobias Risthaus        : pre 6.0 range-separated hybrid DFT and stability analysis
  Lukas Wittmann         : regularized MP2, r2SCAN double-hybrids, wr2SCAN        
                                                                         
We gratefully acknowledge several colleagues who have allowed us to      
interface, adapt or use parts of their codes:                            
  Ed Valeev, F. Pavosevic, A. Kumar             : LibInt (2-el integral package), F12 methods 
  Garnet Chan, S. Sharma, J. Yang, R. Olivares  : DMRG                   
  Ulf Ekstrom                                   : XCFun DFT Library      
  Mihaly Kallay                                 : mrcc  (arbitrary order and MRCC methods)
  Frank Weinhold                                : gennbo (NPA and NBO analysis)           
  Simon Mueller                                 : openCOSMO-RS                            
  Christopher J. Cramer and Donald G. Truhlar   : smd solvation model                     
  S Lehtola, MJT Oliveira, MAL Marques          : LibXC Library                           
  Liviu Ungur et al                             : ANISO software                          


 Your calculation uses the libint2 library for the computation of 2-el integrals
 For citations please refer to: http://libint.valeyev.net

 Your ORCA version has been built with support for libXC version: 7.0.0
 For citations please refer to: https://libxc.gitlab.io

 This ORCA versions uses:
   CBLAS   interface :  Fast vector & matrix operations
   LAPACKE interface :  Fast linear algebra routines
   SCALAPACK package :  Parallel linear algebra routines
   Shared memory     :  Shared parallel matrices
   BLAS/LAPACK       :  OpenBLAS 0.3.29  USE64BITINT DYNAMIC_ARCH NO_AFFINITY SkylakeX SINGLE_THREADED
        Core in use  :  SkylakeX
   Copyright (c) 2011-2014, The OpenBLAS Project


  ***********************************
  * Starting time: Mon Feb 23 00:43:39 2026
  * Host name:     node2325.oscar.ccv.brown.edu
  * Process ID:    3297375
  * Working dir.:  /oscar/scratch/niyer15/freq
  ***********************************

NOTE: MaxCore=7000 MB was set to SCF,MP2,MDCI,CIPSI,MRCI,RASCI and CIS
      => If you want to overwrite this, your respective input block should be placed after the MaxCore statement


***************************************
The coordinates will be read from file: eu_freq.xyz
***************************************


Warning: RI and relativity are on but no J-basis has been assigned. Assigning SARC/J (nothing to worry about!)
================================================================================

----- Orbital basis set information -----
The basis set includes element-specific modifications.

Your calculation utilizes the basis: SARC-ZORA-TZVP 
   Rb-Xe:  J. D. Rolfes, F. Neese and D. A. Pantazis, J. Comput. Chem. 41, 1842 (2020).
   La-Lu:  D. A. Pantazis and F. Neese, J. Chem. Theory Comput. 5, 2229 (2009).
   Hf-Hg:  D. A. Pantazis, X. Y. Chen, C. R. Landis and F. Neese, J. Chem. Theory Comput. 4, 908 (2008).
   Tl-Rn:  D. A. Pantazis and F. Neese, Theor. Chem. Acc. 131, 1292 (2012).
   Ac-Lr:  D. A. Pantazis and F. Neese, J. Chem. Theory Comput. 7, 677 (2011).

Your calculation utilizes the basis: ZORA-def2-TZVP 
   Exponents from def2-TZVP [F. Weigend and R. Ahlrichs, Phys. Chem. Chem. Phys. 7, 3297 (2005)],
   recontracted for ZORA by D. A. Pantazis.

Your calculation utilizes the basis: ZORA-def2-SVP 
   Exponents from def2-SVP [F. Weigend and R. Ahlrichs, Phys. Chem. Chem. Phys. 7, 3297 (2005)],
   recontracted for ZORA by D. A. Pantazis.

----- AuxJ basis set information -----
Your calculation utilizes the auxiliary basis: SARC/J 
   decontracted def2/J up to Kr:
   F. Weigend, Phys. Chem. Chem. Phys. 8, 1057 (2006)
   and SARC auxiliary basis sets beyond Kr:
   D. A. Pantazis and F. Neese, J. Chem. Theory Comput. 5, 2229 (2009).
   D. A. Pantazis, X. Y. Chen, C. R. Landis and F. Neese, J. Chem. Theory Comput. 4, 908 (2008).
   D. A. Pantazis and F. Neese, Theor. Chem. Acc. 131, 1292 (2012).
   D. A. Pantazis and F. Neese, J. Chem. Theory Comput. 7, 677 (2011).

================================================================================
                                        WARNINGS
                       Please study these warnings very carefully!
================================================================================

WARNING: Old DensityContainer found on disk!
         Will remove this file - 
         If you want to keep old densities, please start your calculation with a different basename. 

WARNING: Gradients needed for Numerical Frequencies
  ===> : Setting RunTyp to EnGrad

WARNING: In scalar relativistic gradient/hessian runs we need the one-center approximation
  ===> : %rel OneCenter is turned on

WARNING: Relativistic property calculations require picture change transformations!
  ===> : Setting %rel PictureChange = 1

WARNING: Picture change corrections for electric properties are not implemented for ZORA(MP),
         however, the errors are usually negligible.

WARNING: The environment variable RSH_COMMAND is not set!
  ===> : All Displacements for the Numerical Hessian or Gradient calculation
         will be started on localhost

================================================================================
                                       INPUT FILE
================================================================================
NAME = raman.inp
|  1> ! PBE UKS ZORA TightSCF MORead NUMFREQ
|  2> 
|  3> %moinp "eu_freq.gbw"
|  4> 
|  5> %pal nprocs 8 end
|  6> %maxcore 7000
|  7> 
|  8> %basis
|  9>   newgto Eu "SARC-ZORA-TZVP" end
| 10>   newgto O  "ZORA-def2-TZVP" end
| 11>   newgto N  "ZORA-def2-TZVP" end
| 12>   newgto C  "ZORA-def2-TZVP" end
| 13>   newgto H  "ZORA-def2-SVP"  end
| 14> end
| 15> 
| 16> * xyzfile 0 7 eu_freq.xyz  # Use the optimized geometry file
| 17> 
| 18> %elprop
| 19>   Polar 1
| 20> end
| 21> 
| 22> %geom
| 23>     InHessName "eu_freq.hess"
| 24>     inhess read
| 25> end
| 26> 
| 27> 
| 28>                          ****END OF INPUT****
================================================================================

                     *******************************
                     * Energy+Gradient Calculation *
                     *******************************

---------------------------------
CARTESIAN COORDINATES (ANGSTROEM)
---------------------------------
  Eu     9.401109    7.731525    9.709077
  O     10.020159    8.001383   12.165311
  O      9.175495    5.946032    7.989488
  O     11.849465    7.633304    9.242952
  O      7.413412    7.205600    8.229436
  O     11.022076    5.885189   10.231682
  O     10.149212    9.783537   10.920998
  O     13.146665    5.918705    9.691022
  O     10.622741    9.914621   13.059685
  N      8.015573    9.981641    9.080500
  N      7.173120    8.325350   11.095501
  N      7.274416    6.203389   12.031628
  N     10.281633    9.253874   12.090779
  O      7.418971    5.616748    6.713131
  N      9.379032   10.241028    7.222492
  N      7.977704    6.232536    7.607578
  N     12.051343    6.453219    9.723217
  N      9.994379    9.069897    7.541508
  N      8.217782    5.867351   11.108686
  C      6.603185    9.550059   10.982363
  C      7.044450   10.420924    9.916583
  C      6.423828   11.692298    9.765206
  C      5.565460    9.992964   11.849019
  C      5.136967    9.090222   12.849786
  H      4.351812    9.392422   13.546171
  C      6.709807    7.490475   12.015985
  C     10.837984    9.883474    5.602637
  H     11.434758    9.975354    4.701763
  C      4.990107   11.288825   11.682940
  H      4.205247   11.605727   12.372970
  C      5.404210   12.110810   10.672436
  H      4.957468   13.098328   10.538940
  C      8.380722   10.756124    8.070798
  C      9.872248   10.756672    6.050375
  H      9.501780   11.681208    5.623276
  C      6.858905   12.495601    8.685936
  H      6.417282   13.483434    8.538381
  C     10.877220    8.853062    6.569246
  H     11.511666    7.972543    6.617591
  C      7.830483   12.036720    7.828405
  H      8.175839   12.651625    6.999342
  C      5.690478    7.834689   12.935181
  H      5.350021    7.129008   13.690423
  C      6.989037    5.142909   12.856462
  H      6.264655    5.212536   13.659234
  C      8.524994    4.597498   11.357021
  H      9.284844    4.111008   10.751444
  C      7.777466    4.092630   12.446656
  H      7.814366    3.097363   12.875916

----------------------------
CARTESIAN COORDINATES (A.U.)
----------------------------
  NO LB      ZA    FRAG     MASS         X           Y           Z
   0 Eu   63.0000    0   151.960   17.765522   14.610464   18.347497
   1 O     8.0000    0    15.999   18.935357   15.120422   22.989107
   2 O     8.0000    0    15.999   17.339173   11.236372   15.097944
   3 O     8.0000    0    15.999   22.392244   14.424854   17.466649
   4 O     8.0000    0    15.999   14.009319   13.616610   15.551380
   5 O     8.0000    0    15.999   20.828705   11.121396   19.335076
   6 O     8.0000    0    15.999   19.179231   18.488206   20.637696
   7 O     8.0000    0    15.999   24.843596   11.184731   18.313377
   8 O     8.0000    0    15.999   20.074071   18.735919   24.679229
   9 N     7.0000    0    14.007   15.147238   18.862568   17.159658
  10 N     7.0000    0    14.007   13.555232   15.732631   20.967458
  11 N     7.0000    0    14.007   13.746655   11.722707   22.736482
  12 N     7.0000    0    14.007   19.429471   17.487287   22.848261
  13 O     8.0000    0    15.999   14.019824   10.614115   12.685980
  14 N     7.0000    0    14.007   17.723802   19.352739   13.648533
  15 N     7.0000    0    14.007   15.075675   11.777786   14.376239
  16 N     7.0000    0    14.007   22.773738   12.194816   18.374218
  17 N     7.0000    0    14.007   18.886639   17.139622   14.251385
  18 N     7.0000    0    14.007   15.529357   11.087686   20.992374
  19 C     6.0000    0    12.011   12.478211   18.046996   20.753659
  20 C     6.0000    0    12.011   13.312082   19.692693   18.739626
  21 C     6.0000    0    12.011   12.139276   22.095241   18.453565
  22 C     6.0000    0    12.011   10.517195   18.883965   22.391402
  23 C     6.0000    0    12.011    9.707461   17.178031   24.282576
  24 H     1.0000    0     1.008    8.223733   17.749105   25.598554
  25 C     6.0000    0    12.011   12.679698   14.154946   22.706921
  26 C     6.0000    0    12.011   20.480822   18.677059   10.587450
  27 H     1.0000    0     1.008   21.608562   18.850687    8.885044
  28 C     6.0000    0    12.011    9.429935   21.332788   22.077557
  29 H     1.0000    0     1.008    7.946765   21.931645   23.381525
  30 C     6.0000    0    12.011   10.212478   22.886115   20.167981
  31 H     1.0000    0     1.008    9.368258   24.752253   19.915711
  32 C     6.0000    0    12.011   15.837270   20.326129   15.251597
  33 C     6.0000    0    12.011   18.655845   20.327165   11.433551
  34 H     1.0000    0     1.008   17.955762   22.074283   10.626452
  35 C     6.0000    0    12.011   12.961452   23.613264   16.414040
  36 H     1.0000    0     1.008   12.126905   25.479997   16.135201
  37 C     6.0000    0    12.011   20.554966   16.729862   12.414076
  38 H     1.0000    0     1.008   21.753896   15.065922   12.505435
  39 C     6.0000    0    12.011   14.797468   22.746104   14.793542
  40 H     1.0000    0     1.008   15.450096   23.908106   13.226840
  41 C     6.0000    0    12.011   10.753446   14.805416   24.443949
  42 H     1.0000    0     1.008   10.110075   13.471873   25.871150
  43 C     6.0000    0    12.011   13.207366    9.718690   24.295193
  44 H     1.0000    0     1.008   11.838482    9.850266   25.812211
  45 C     6.0000    0    12.011   16.109905    8.688012   21.461659
  46 H     1.0000    0     1.008   17.545813    7.768680   20.317284
  47 C     6.0000    0    12.011   14.697282    7.733950   23.520771
  48 H     1.0000    0     1.008   14.767011    5.853167   24.331955

--------------------------------
INTERNAL COORDINATES (ANGSTROEM)
--------------------------------
 Eu     0   0   0     0.000000000000     0.00000000     0.00000000
 O      1   0   0     2.547377447458     0.00000000     0.00000000
 O      1   2   0     2.489151093568   139.82977984     0.00000000
 O      1   2   3     2.494266696166    86.89432112   279.81286488
 O      3   1   2     2.179224966599    65.33112450   126.42097286
 O      4   1   2     2.172110379126    64.70508057    71.64916354
 O      2   1   3     2.177394037681    63.26192586   160.03928110
 O      6   4   1     2.192559030388    60.41896271   177.83875710
 O      7   2   1     2.194400842235    60.31193378   178.81246711
 N      1   2   3     2.716218934862   105.03092900   160.23399552
 N      1   2   3     2.690489985341    71.39696780   108.64828481
 N     11   1   2     2.321488795095    88.27615337   289.24120404
 N      9   7   2     1.221360383197    30.03233857     0.38849739
 O      3   1   2     2.196107631002   125.56002218   128.44351634
 N     10   1   2     2.319157706811    88.74864329   130.21633186
 N     14   3   1     1.221233443355    29.86373999   357.89839862
 N      8   6   4     1.219209166405    29.50102777     0.07986904
 N     15  10   1     1.360871318152    88.95591140     3.02994426
 N     12  11   1     1.361867162720    88.99647524   348.07747417
 C     11   1   2     1.355558387754   120.30262433   107.63552107
 C     10   1   2     1.354652674431   119.43797572   313.85253064
 C     21  10   1     1.422841384925   122.46506808   169.95035318
 C     20  11   1     1.422719599941   122.48551710   190.69593164
 C     23  20  11     1.414242229919   116.95810848   359.75146910
 H     24  23  20     1.092129079717   119.49911302   179.19818539
 C     11   1   2     1.326260246433   120.53025976   295.82136569
 C     15  10   1     2.209144102773   163.25784900    13.22763190
 H     27  15  10     1.084507264956   163.49386047   169.00090793
 C     23  20  11     1.427539933243   120.37771747   180.47028301
 H     29  23  20     1.092050403715   118.65769945   180.87122922
 C     29  23  20     1.366842784143   120.65098414     1.51044830
 H     31  29  23     1.092058376957   120.68002532   179.39216661
 C     10   1   2     1.323879329389   121.36087416   124.86474113
 C     15  10   1     1.372228485314   159.66284243   174.91370371
 H     34  15  10     1.083708786044   122.29939200     8.07708709
 C     22  21  10     1.414005629742   117.04060761     0.33475493
 H     36  22  21     1.092070095398   119.51041553   180.64837315
 C     18  15  10     1.331059181380   105.59698760   177.13894565
 H     38  18  15     1.086357732772   119.13605716   178.78700379
 C     36  22  21     1.374734477468   120.26092223     0.65808216
 H     40  36  22     1.088450708238   120.71681930   180.42774781
 C     24  23  20     1.374784191620   120.32611561   358.30224307
 H     42  24  23     1.088249593156   120.62100068   181.26044976
 C     12  11   1     1.373466906355   159.86070484   170.42681736
 H     44  12  11     1.083522013425   122.29206219   357.26103869
 C     19  12  11     1.329878108560   105.60949253   180.75257498
 H     46  19  12     1.086631250415   119.01032630   181.35230383
 C     44  12  11     1.375735618296   106.94711183   177.48988804
 H     48  44  12     1.084519838078   127.02751020   179.82702539

---------------------------
INTERNAL COORDINATES (A.U.)
---------------------------
 Eu     0   0   0     0.000000000000     0.00000000     0.00000000
 O      1   0   0     4.813845735423     0.00000000     0.00000000
 O      1   2   0     4.703813872795   139.82977984     0.00000000
 O      1   2   3     4.713480960714    86.89432112   279.81286488
 O      3   1   2     4.118138371075    65.33112450   126.42097286
 O      4   1   2     4.104693749196    64.70508057    71.64916354
 O      2   1   3     4.114678416850    63.26192586   160.03928110
 O      6   4   1     4.143336099889    60.41896271   177.83875710
 O      7   2   1     4.146816619871    60.31193378   178.81246711
 N      1   2   3     5.132909906661   105.03092900   160.23399552
 N      1   2   3     5.084289238353    71.39696780   108.64828481
 N     11   1   2     4.386978045697    88.27615337   289.24120404
 N      9   7   2     2.308036635063    30.03233857     0.38849739
 O      3   1   2     4.150041983208   125.56002218   128.44351634
 N     10   1   2     4.382572927246    88.74864329   130.21633186
 N     14   3   1     2.307796753527    29.86373999   357.89839862
 N      8   6   4     2.303971424472    29.50102777     0.07986904
 N     15  10   1     2.571674094816    88.95591140     3.02994426
 N     12  11   1     2.573555968321    88.99647524   348.07747417
 C     11   1   2     2.561634111395   120.30262433   107.63552107
 C     10   1   2     2.559922561258   119.43797572   313.85253064
 C     21  10   1     2.688780549517   122.46506808   169.95035318
 C     20  11   1     2.688550409251   122.48551710   190.69593164
 C     23  20  11     2.672530501574   116.95810848   359.75146910
 H     24  23  20     2.063824863556   119.49911302   179.19818539
 C     11   1   2     2.506268648065   120.53025976   295.82136569
 C     15  10   1     4.174677344607   163.25784900    13.22763190
 H     27  15  10     2.049421721015   163.49386047   169.00090793
 C     23  20  11     2.697659519066   120.37771747   180.47028301
 H     29  23  20     2.063676187460   118.65769945   180.87122922
 C     29  23  20     2.582958530156   120.65098414     1.51044830
 H     31  29  23     2.063691254703   120.68002532   179.39216661
 C     10   1   2     2.501769366905   121.36087416   124.86474113
 C     15  10   1     2.593136030410   159.66284243   174.91370371
 H     34  15  10     2.047912814547   122.29939200     8.07708709
 C     22  21  10     2.672083392035   117.04060761     0.33475493
 H     36  22  21     2.063713399348   119.51041553   180.64837315
 C     18  15  10     2.515337320850   105.59698760   177.13894565
 H     38  18  15     2.052918598407   119.13605716   178.78700379
 C     36  22  21     2.597871669273   120.26092223     0.65808216
 H     40  36  22     2.056873748842   120.71681930   180.42774781
 C     24  23  20     2.597965615406   120.32611561   358.30224307
 H     42  24  23     2.056493696416   120.62100068   181.26044976
 C     12  11   1     2.595476307015   159.86070484   170.42681736
 H     44  12  11     2.047559865447   122.29206219   357.26103869
 C     19  12  11     2.513105416676   105.60949253   180.75257498
 H     46  19  12     2.053435471844   119.01032630   181.35230383
 C     44  12  11     2.599763551261   106.94711183   177.48988804
 H     48  44  12     2.049445480771   127.02751020   179.82702539

---------------------
BASIS SET INFORMATION
---------------------
There are 5 groups of distinct atoms

 Group   1 Type Eu  : 23s16p12d6f contracted to 18s12p9d3f pattern {611111111111111111/511111111111/411111111/411}
 Group   2 Type O   : 11s6p2d1f contracted to 6s3p2d1f pattern {611111/411/11/1}
 Group   3 Type N   : 11s6p2d1f contracted to 6s3p2d1f pattern {611111/411/11/1}
 Group   4 Type C   : 11s6p2d1f contracted to 6s3p2d1f pattern {611111/411/11/1}
 Group   5 Type H   : 4s1p contracted to 2s1p pattern {31/1}

Atom   0Eu   basis set group =>   1
Atom   1O    basis set group =>   2
Atom   2O    basis set group =>   2
Atom   3O    basis set group =>   2
Atom   4O    basis set group =>   2
Atom   5O    basis set group =>   2
Atom   6O    basis set group =>   2
Atom   7O    basis set group =>   2
Atom   8O    basis set group =>   2
Atom   9N    basis set group =>   3
Atom  10N    basis set group =>   3
Atom  11N    basis set group =>   3
Atom  12N    basis set group =>   3
Atom  13O    basis set group =>   2
Atom  14N    basis set group =>   3
Atom  15N    basis set group =>   3
Atom  16N    basis set group =>   3
Atom  17N    basis set group =>   3
Atom  18N    basis set group =>   3
Atom  19C    basis set group =>   4
Atom  20C    basis set group =>   4
Atom  21C    basis set group =>   4
Atom  22C    basis set group =>   4
Atom  23C    basis set group =>   4
Atom  24H    basis set group =>   5
Atom  25C    basis set group =>   4
Atom  26C    basis set group =>   4
Atom  27H    basis set group =>   5
Atom  28C    basis set group =>   4
Atom  29H    basis set group =>   5
Atom  30C    basis set group =>   4
Atom  31H    basis set group =>   5
Atom  32C    basis set group =>   4
Atom  33C    basis set group =>   4
Atom  34H    basis set group =>   5
Atom  35C    basis set group =>   4
Atom  36H    basis set group =>   5
Atom  37C    basis set group =>   4
Atom  38H    basis set group =>   5
Atom  39C    basis set group =>   4
Atom  40H    basis set group =>   5
Atom  41C    basis set group =>   4
Atom  42H    basis set group =>   5
Atom  43C    basis set group =>   4
Atom  44H    basis set group =>   5
Atom  45C    basis set group =>   4
Atom  46H    basis set group =>   5
Atom  47C    basis set group =>   4
Atom  48H    basis set group =>   5
---------------------------------
AUXILIARY/J BASIS SET INFORMATION
---------------------------------
There are 5 groups of distinct atoms

 Group   1 Type Eu  : 33s10p8d5f4g2h contracted to 33s10p8d5f4g2h pattern {111111111111111111111111111111111/1111111111/11111111/11111/1111/11}
 Group   2 Type O   : 12s5p4d2f1g contracted to 12s5p4d2f1g pattern {111111111111/11111/1111/11/1}
 Group   3 Type N   : 12s5p4d2f1g contracted to 12s5p4d2f1g pattern {111111111111/11111/1111/11/1}
 Group   4 Type C   : 12s5p4d2f1g contracted to 12s5p4d2f1g pattern {111111111111/11111/1111/11/1}
 Group   5 Type H   : 5s2p1d contracted to 5s2p1d pattern {11111/11/1}

Atom   0Eu   basis set group =>   1
Atom   1O    basis set group =>   2
Atom   2O    basis set group =>   2
Atom   3O    basis set group =>   2
Atom   4O    basis set group =>   2
Atom   5O    basis set group =>   2
Atom   6O    basis set group =>   2
Atom   7O    basis set group =>   2
Atom   8O    basis set group =>   2
Atom   9N    basis set group =>   3
Atom  10N    basis set group =>   3
Atom  11N    basis set group =>   3
Atom  12N    basis set group =>   3
Atom  13O    basis set group =>   2
Atom  14N    basis set group =>   3
Atom  15N    basis set group =>   3
Atom  16N    basis set group =>   3
Atom  17N    basis set group =>   3
Atom  18N    basis set group =>   3
Atom  19C    basis set group =>   4
Atom  20C    basis set group =>   4
Atom  21C    basis set group =>   4
Atom  22C    basis set group =>   4
Atom  23C    basis set group =>   4
Atom  24H    basis set group =>   5
Atom  25C    basis set group =>   4
Atom  26C    basis set group =>   4
Atom  27H    basis set group =>   5
Atom  28C    basis set group =>   4
Atom  29H    basis set group =>   5
Atom  30C    basis set group =>   4
Atom  31H    basis set group =>   5
Atom  32C    basis set group =>   4
Atom  33C    basis set group =>   4
Atom  34H    basis set group =>   5
Atom  35C    basis set group =>   4
Atom  36H    basis set group =>   5
Atom  37C    basis set group =>   4
Atom  38H    basis set group =>   5
Atom  39C    basis set group =>   4
Atom  40H    basis set group =>   5
Atom  41C    basis set group =>   4
Atom  42H    basis set group =>   5
Atom  43C    basis set group =>   4
Atom  44H    basis set group =>   5
Atom  45C    basis set group =>   4
Atom  46H    basis set group =>   5
Atom  47C    basis set group =>   4
Atom  48H    basis set group =>   5


           ************************************************************
           *        Program running with 8 parallel MPI-processes     *
           *              working on a common directory               *
           ************************************************************
------------------------------------------------------------------------------
                             ORCA STARTUP CALCULATIONS
                           -- RI-GTO INTEGRALS CHOSEN --
------------------------------------------------------------------------------
------------------------------------------------------------------------------
                   ___                                                        
                  /   \      - P O W E R E D   B Y -                         
                 /     \                                                     
                 |  |  |   _    _      __       _____    __    __             
                 |  |  |  | |  | |    /  \     |  _  \  |  |  /  |          
                  \  \/   | |  | |   /    \    | | | |  |  | /  /          
                 / \  \   | |__| |  /  /\  \   | |_| |  |  |/  /          
                |  |  |   |  __  | /  /__\  \  |    /   |      \           
                |  |  |   | |  | | |   __   |  |    \   |  |\   \          
                \     /   | |  | | |  |  |  |  | |\  \  |  | \   \       
                 \___/    |_|  |_| |__|  |__|  |_| \__\ |__|  \__/        
                                                                              
                      - O R C A' S   B I G   F R I E N D -                    
                                      &                                       
                       - I N T E G R A L  F E E D E R -                       
                                                                              
 v1 FN, 2020, v2 2021, v3 2022-2024                                           
------------------------------------------------------------------------------


----------------------
SHARK INTEGRAL PACKAGE
----------------------

Number of atoms                             ...     49
Number of basis functions                   ...   1332
Number of shells                            ...    510
Maximum angular momentum                    ...      3
Integral batch strategy                     ... SHARK/LIBINT Hybrid
RI-J (if used) integral strategy            ... SPLIT-RIJ (Revised 2003 algorithm where possible)
Printlevel                                  ...      1
Contraction scheme used                     ... SEGMENTED contraction
Prescreening option                         ... SCHWARTZ
   Thresh                                   ... 2.500e-11
   Tcut                                     ... 2.500e-12
   Tpresel                                  ... 2.500e-12 
Coulomb Range Separation                    ... NOT USED
Exchange Range Separation                   ... NOT USED
Multipole approximations                    ... NOT USED
Finite Nucleus Model                        ... NOT USED
CABS basis                                  ... NOT available
Auxiliary Coulomb fitting basis             ... AVAILABLE
   # of basis functions in Aux-J            ...   2908
   # of shells in Aux-J                     ...   1022
   Maximum angular momentum in Aux-J        ...      5
Auxiliary J/K fitting basis                 ... NOT available
Auxiliary Correlation fitting basis         ... NOT available
Auxiliary 'external' fitting basis          ... NOT available

Checking pre-screening integrals            ... done (  0.0 sec) Dimension = 510
   => SHARK Basis and OBASIS are compatible. Storing Pre-screening
Shell pair information
Shell pair cut-off parameter TPreSel        ...   2.5e-12
Total number of shell pairs                 ...    130305
Shell pairs after pre-screening             ...     76658
Total number of primitive shell pairs       ...    351532
Primitive shell pairs kept                  ...    135464
          la=0 lb=0:  17323 shell pairs
          la=1 lb=0:  21952 shell pairs
          la=1 lb=1:   6569 shell pairs
          la=2 lb=0:  11329 shell pairs
          la=2 lb=1:   7251 shell pairs
          la=2 lb=2:   1945 shell pairs
          la=3 lb=0:   4908 shell pairs
          la=3 lb=1:   3314 shell pairs
          la=3 lb=2:   1699 shell pairs
          la=3 lb=3:    368 shell pairs

Checking whether 4 symmetric matrices of dimension 1332 fit in memory
:Max Core in MB      =   7000.00
 MB in use           =     96.50
 MB left             =   6903.50
 MB needed           =     27.09
 Data fit in memory  = YES
Calculating RI/J V-Matrix + Cholesky decomp.... done (  0.7 sec)
Calculating Nuclear repulsion               ... done (  0.0 sec) ENN=   6469.803460659120 Eh

Diagonalization of the overlap matrix:
Smallest eigenvalue                        ... 2.341e-06
Time for diagonalization                   ...    0.223 sec
Threshold for overlap eigenvalues          ... 1.000e-07
Number of eigenvalues below threshold      ... 0
Time for construction of square roots      ...    0.159 sec
Total time needed                          ...    0.414 sec

-------------------
DFT GRID GENERATION
-------------------

General Integration Accuracy     IntAcc      ... 4.388
Radial Grid Type                 RadialGrid  ... OptM3 with GC (2021)
Angular Grid (max. ang.)         AngularGrid ... 4 (Lebedev-302)
Angular grid pruning method      GridPruning ... 4 (adaptive)
Weight generation scheme         WeightScheme... mBecke (2022)
Basis function cutoff            BFCut       ... 1.0000e-11
Integration weight cutoff        WCut        ... 1.0000e-14
Partially contracted basis set               ... off
Rotationally invariant grid construction     ... off
Angular grids for H and He will be reduced by one unit
Core-polarized basis detected: some atoms will have their core
                               angular grid increased.
Steep s-basis detected: some atoms will have their radial
                        grid points doubled.

Total number of grid points                  ...   279162
Total number of batches                      ...     4386
Average number of points per batch           ...       63
Average number of grid points per atom       ...     5697
Grids setup in   2.4 sec
Initializing property integral containers    ... done (  0.0 sec)

SHARK setup successfully completed in   5.3 seconds

Maximum memory used throughout the entire STARTUP-calculation: 183.3 MB


           ************************************************************
           *        Program running with 8 parallel MPI-processes     *
           *              working on a common directory               *
           ************************************************************
------------------------------------------------------------------------------
                          ORCA RELATIVISTIC HAMILTONIAN
------------------------------------------------------------------------------

Relativistic Method            ... ZORA(MP)
Treatment of potential         ... Van Wuellen
Nucleus model                  ... Point Nucleus
Speed of light used            ... 137.03598950000000


            *************************************************
            *         ZERO ORDER REGULAR APPROXIMATION      *
            *                     ZORA(MP)                  *
            *            Programmed by FN according to      *
            *                   C. van Wuellen              *
            *       J. Chem. Phys. (1998) vol 109, 392-399  *
            *************************************************

Terms included in model potential: +V(e,N)+V(C)+V(Xa)+V(VWN-V)
Basis function cutoff value   ... 1.000000e-11
Loading the fitted atomic densities (ZORA)   ... done
Calculating the cutoffs                      ... done
Number of fit functions                      ... 487
One center approximation for ZORA is active
Finding unique atoms                  ... 5 atom types
AtomType   0 (Eu) Member=  0 NMembers=   1, NRad=2000 NumBF=120
             ... doing numerical integration
             ... adding submatrices to 1 actual atoms
AtomType   1 (O ) Member=  1 NMembers=   9, NRad=2000 NumBF= 32
             ... doing numerical integration
             ... adding submatrices to 9 actual atoms
AtomType   2 (N ) Member=  9 NMembers=   9, NRad=2000 NumBF= 32
             ... doing numerical integration
             ... adding submatrices to 9 actual atoms
AtomType   3 (C ) Member= 19 NMembers=  18, NRad=2000 NumBF= 32
             ... doing numerical integration
             ... adding submatrices to 18 actual atoms
AtomType   4 (H ) Member= 24 NMembers=  12, NRad=2000 NumBF=  5
             ... doing numerical integration
             ... adding submatrices to 12 actual atoms
             ... done with one-center part

Maximum memory used throughout the entire REL-calculation: 35.4 MB


           ************************************************************
           *        Program running with 8 parallel MPI-processes     *
           *              working on a common directory               *
           ************************************************************
-------------------------------------------------------------------------------
                                 ORCA GUESS
                   Start orbitals & Density for SCF / CASSCF
-------------------------------------------------------------------------------

------------
SCF SETTINGS
------------
Hamiltonian:
 Density Functional     Method          .... DFT(GTOs)
 Exchange Functional    Exchange        .... PBE
   PBE kappa parameter   XKappa         ....  0.804000
   PBE mue parameter    XMuePBE         ....  0.219520
 Correlation Functional Correlation     .... PBE
   PBE beta parameter  CBetaPBE         ....  0.066725
 LDA part of GGA corr.  LDAOpt          .... PW91-LDA
 Gradients option       PostSCFGGA      .... off
   NL short-range parameter             ....  6.400000
 RI-approximation to the Coulomb term is turned on
   Number of AuxJ basis functions       .... 2908


General Settings:
 Integral files         IntName         .... raman
 Hartree-Fock type      HFTyp           .... UHF
 Total Charge           Charge          ....    0
 Multiplicity           Mult            ....    7
 Number of Electrons    NEL             ....  318
 Basis Dimension        Dim             .... 1332
 Nuclear Repulsion      ENuc            ....   6469.8034606591 Eh

Convergence Acceleration:
 AO-DIIS                CNVDIIS         .... on
   Start iteration      DIISMaxIt       ....    12
   Startup error        DIISStart       ....  0.200000
   # of expansion vecs  DIISMaxEq       ....     5
   Bias factor          DIISBfac        ....   1.050
   Max. coefficient     DIISMaxC        ....  10.000
 MO-DIIS                CNVKDIIS        .... off
 Trust-Rad. Augm. Hess. CNVTRAH         .... auto
   Auto Start mean grad. ratio tolernc. ....  1.125000
   Auto Start start iteration           ....     1
   Auto Start num. interpolation iter.  ....    10
   Max. Number of Micro iterations      ....    24
   Max. Number of Macro iterations      .... Maxiter - #DIIS iter
   Number of Davidson start vectors     ....     2
   Converg. threshold    (grad. norm)   ....   1.000e-05
   Grad. Scal. Fac. for Micro threshold ....   0.100
   Minimum threshold for Micro iter.    ....   1.000e-02
   NR start threshold (gradient norm)   ....   1.000e-04
   Initial trust radius                 ....   0.400
   Minimum AH scaling param. (alpha)    ....   1.000
   Maximum AH scaling param. (alpha)    .... 1000.000
   Quad. conv. algorithm                .... NR
   White noise on init. David. guess    .... on
   Maximum white noise                  ....   0.010
   Pseudo random numbers                .... off
   Inactive MOs                         .... canonical
   Orbital update algorithm             .... Taylor
   Preconditioner                       .... Diag
   Full preconditioner red. dimension   ....   250
 SOSCF                 CNVSOSCF           .... on
   Start iteration     SOSCFMaxIt         ....   150
   Startup grad/error  SOSCFStart         ....  0.003300
   Hessian update      SOSCFHessUp        .... L-BFGS
   Autom. constraints  SOSCFAutoConstrain .... off
 Level Shifting         CNVShift        .... on
   Level shift para.    LevelShift      ....    0.2500
   Turn off err/grad.   ShiftErr        ....    0.0010
 Zerner damping         CNVZerner       .... off
 Static damping         CNVDamp         .... on
   Fraction old density DampFac         ....    0.7000
   Max. Damping (<1)    DampMax         ....    0.9800
   Min. Damping (>=0)   DampMin         ....    0.0000
   Turn off err/grad.   DampErr         ....    0.1000

SCF Procedure:
 Maximum # iterations   MaxIter         ....   125
 SCF integral mode      SCFMode         .... Direct
   Integral package                     .... SHARK and LIBINT hybrid scheme
 Reset frequency        DirectResetFreq ....    20
 Integral Threshold     Thresh          ....  2.500e-11 Eh
 Primitive CutOff       TCut            ....  2.500e-12 Eh

Convergence Tolerance:
 Convergence Check Mode ConvCheckMode   .... Total+1el-Energy
 Convergence forced     ConvForced      .... 0
 Energy Change          TolE            ....  1.000e-08 Eh
 1-El. energy change                    ....  1.000e-05 Eh
 Orbital Gradient       TolG            ....  1.000e-05
 Orbital Rotation angle TolX            ....  1.000e-05
 DIIS Error             TolErr          ....  5.000e-07

---------------------
INITIAL GUESS: MOREAD
---------------------
Guess MOs are being read from file: eu_freq.gbw
Input Geometry matches current geometry (good)
Input basis set matches current basis set (good)
MOs were renormalized
MOs were reorthogonalized (Cholesky)
                      ------------------
                      INITIAL GUESS DONE (   2.5 sec)
                      ------------------
             **** ENERGY FILE WAS UPDATED (raman.en.tmp) ****
Finished Guess after   3.8 sec
Maximum memory used throughout the entire GUESS-calculation: 200.9 MB


           ************************************************************
           *        Program running with 8 parallel MPI-processes     *
           *              working on a common directory               *
           ************************************************************

-------------------------------------------------------------------------------------------
                                      ORCA LEAN-SCF
                              memory conserving SCF solver
-------------------------------------------------------------------------------------------

----------------------------------------D-I-I-S--------------------------------------------
Iteration    Energy (Eh)           Delta-E    RMSDP     MaxDP     DIISErr   Damp  Time(sec)
-------------------------------------------------------------------------------------------
               ***  Starting incremental Fock matrix formation  ***
                              *** Initializing SOSCF ***
---------------------------------------S-O-S-C-F--------------------------------------
Iteration    Energy (Eh)           Delta-E    RMSDP     MaxDP     MaxGrad    Time(sec)
--------------------------------------------------------------------------------------
    1    -12941.2691931473491422     0.00e+00  4.59e-05  3.59e-03  2.32e-06    10.6
               *** Restarting incremental Fock matrix formation ***
    2    -12941.2691931550543814    -7.71e-09  1.59e-05  1.23e-03  5.28e-06     8.6
    3    -12941.2691931894587469    -3.44e-08  8.83e-06  6.85e-04  1.61e-05     5.8
    4    -12941.2691933630303538    -1.74e-07  4.26e-05  3.27e-03  1.88e-06     5.9
                  *** Gradient check signals convergence ***

               *****************************************************
               *                     SUCCESS                       *
               *           SCF CONVERGED AFTER   4 CYCLES          *
               *****************************************************

             **** ENERGY FILE WAS UPDATED (raman.en.tmp) ****

----------------
TOTAL SCF ENERGY
----------------

Total Energy       :     -12941.26919354893107 Eh         -352149.83771 eV

Components:
Nuclear Repulsion  :       6469.80346065911999 Eh          176052.30249 eV
Electronic Energy  :     -19411.07265420805197 Eh         -528202.14020 eV
One Electron Energy:     -30496.26951766463026 Eh         -829845.68211 eV
Two Electron Energy:      11085.19686345657828 Eh          301643.54192 eV

Virial components:
Potential Energy   :     -26668.90167821448631 Eh         -725697.70842 eV
Kinetic Energy     :      13727.63248466555524 Eh          373547.87071 eV
Virial Ratio       :          1.94271675818864

DFT components:
N(Alpha)           :      161.999624217619 electrons
N(Beta)            :      155.999631849457 electrons
N(Total)           :      317.999256067076 electrons
E(X)               :     -471.852516517917 Eh       
E(C)               :      -12.276780490810 Eh       
E(XC)              :     -484.129297008727 Eh       

---------------
SCF CONVERGENCE
---------------

  Last Energy change         ...    1.7357e-07  Tolerance :   1.0000e-08
  Last MAX-Density change    ...    3.2689e-03  Tolerance :   1.0000e-07
  Last RMS-Density change    ...    4.2616e-05  Tolerance :   5.0000e-09
  Last DIIS Error            ...    4.7653e-06  Tolerance :   5.0000e-07
  Last Orbital Gradient      ...    1.8763e-06  Tolerance :   1.0000e-05
  Last Orbital Rotation      ...    1.6958e-05  Tolerance :   1.0000e-05


----------------------
UHF SPIN CONTAMINATION
----------------------

Warning: in a DFT calculation there is little theoretical justification to 
         calculate <S**2> as in Hartree-Fock theory. We will do it anyways
         but you should keep in mind that the values have only limited relevance

Expectation value of <S**2>     :    12.191366
Ideal value S*(S+1) for S=3.0   :    12.000000
Deviation                       :     0.191366

----------------
ORBITAL ENERGIES
----------------
                 SPIN UP ORBITALS
  NO   OCC          E(Eh)            E(eV) 
   0   1.0000   -1878.066749    -51104.7944 
   1   1.0000    -295.191158     -8032.5598 
   2   1.0000    -262.818788     -7151.6628 
   3   1.0000    -262.817240     -7151.6207 
   4   1.0000    -262.816151     -7151.5911 
   5   1.0000     -64.626218     -1758.5688 
   6   1.0000     -54.669876     -1487.6430 
   7   1.0000     -54.662267     -1487.4359 
   8   1.0000     -54.657099     -1487.2953 
   9   1.0000     -41.387055     -1126.1990 
  10   1.0000     -41.385933     -1126.1685 
  11   1.0000     -41.382490     -1126.0748 
  12   1.0000     -41.377939     -1125.9510 
  13   1.0000     -41.377386     -1125.9359 
  14   1.0000     -18.795064      -511.4397 
  15   1.0000     -18.794873      -511.4345 
  16   1.0000     -18.794045      -511.4120 
  17   1.0000     -18.794015      -511.4112 
  18   1.0000     -18.793911      -511.4083 
  19   1.0000     -18.793393      -511.3942 
  20   1.0000     -18.791957      -511.3552 
  21   1.0000     -18.791676      -511.3475 
  22   1.0000     -18.791551      -511.3441 
  23   1.0000     -14.239553      -387.4779 
  24   1.0000     -14.239185      -387.4679 
  25   1.0000     -14.237262      -387.4156 
  26   1.0000     -14.133241      -384.5850 
  27   1.0000     -14.130401      -384.5078 
  28   1.0000     -14.065583      -382.7440 
  29   1.0000     -14.061701      -382.6383 
  30   1.0000     -14.056895      -382.5076 
  31   1.0000     -14.056659      -382.5011 
  32   1.0000     -12.963266      -352.7484 
  33   1.0000     -10.024428      -272.7786 
  34   1.0000     -10.024411      -272.7781 
  35   1.0000      -9.985527      -271.7200 
  36   1.0000      -9.985052      -271.7071 
  37   1.0000      -9.971273      -271.3321 
  38   1.0000      -9.968192      -271.2483 
  39   1.0000      -9.961626      -271.0696 
  40   1.0000      -9.961623      -271.0696 
  41   1.0000      -9.959527      -271.0125 
  42   1.0000      -9.959478      -271.0112 
  43   1.0000      -9.958062      -270.9726 
  44   1.0000      -9.957594      -270.9599 
  45   1.0000      -9.951663      -270.7985 
  46   1.0000      -9.947870      -270.6953 
  47   1.0000      -9.946825      -270.6669 
  48   1.0000      -9.946303      -270.6527 
  49   1.0000      -9.929683      -270.2004 
  50   1.0000      -9.926662      -270.1182 
  51   1.0000      -9.693534      -263.7745 
  52   1.0000      -9.682971      -263.4870 
  53   1.0000      -9.675605      -263.2866 
  54   1.0000      -5.139221      -139.8453 
  55   1.0000      -5.137562      -139.8002 
  56   1.0000      -5.131970      -139.6480 
  57   1.0000      -5.125838      -139.4811 
  58   1.0000      -5.124617      -139.4479 
  59   1.0000      -1.688241       -45.9394 
  60   1.0000      -1.139022       -30.9944 
  61   1.0000      -1.138208       -30.9722 
  62   1.0000      -1.135479       -30.8980 
  63   1.0000      -1.015374       -27.6297 
  64   1.0000      -1.012079       -27.5401 
  65   1.0000      -0.956593       -26.0302 
  66   1.0000      -0.955145       -25.9908 
  67   1.0000      -0.948007       -25.7966 
  68   1.0000      -0.931208       -25.3395 
  69   1.0000      -0.924153       -25.1475 
  70   1.0000      -0.918583       -24.9959 
  71   1.0000      -0.917851       -24.9760 
  72   1.0000      -0.911574       -24.8052 
  73   1.0000      -0.889420       -24.2024 
  74   1.0000      -0.885682       -24.1006 
  75   1.0000      -0.882873       -24.0242 
  76   1.0000      -0.829922       -22.5833 
  77   1.0000      -0.808136       -21.9905 
  78   1.0000      -0.806838       -21.9552 
  79   1.0000      -0.784454       -21.3461 
  80   1.0000      -0.764918       -20.8145 
  81   1.0000      -0.754259       -20.5244 
  82   1.0000      -0.748727       -20.3739 
  83   1.0000      -0.715002       -19.4562 
  84   1.0000      -0.709791       -19.3144 
  85   1.0000      -0.649430       -17.6719 
  86   1.0000      -0.641048       -17.4438 
  87   1.0000      -0.627821       -17.0839 
  88   1.0000      -0.608637       -16.5618 
  89   1.0000      -0.582400       -15.8479 
  90   1.0000      -0.575667       -15.6647 
  91   1.0000      -0.571857       -15.5610 
  92   1.0000      -0.560625       -15.2554 
  93   1.0000      -0.545404       -14.8412 
  94   1.0000      -0.538346       -14.6491 
  95   1.0000      -0.536659       -14.6032 
  96   1.0000      -0.536128       -14.5888 
  97   1.0000      -0.533844       -14.5266 
  98   1.0000      -0.526966       -14.3395 
  99   1.0000      -0.512740       -13.9524 
 100   1.0000      -0.488584       -13.2951 
 101   1.0000      -0.481527       -13.1030 
 102   1.0000      -0.477264       -12.9870 
 103   1.0000      -0.475905       -12.9500 
 104   1.0000      -0.471841       -12.8394 
 105   1.0000      -0.470844       -12.8123 
 106   1.0000      -0.467725       -12.7274 
 107   1.0000      -0.466928       -12.7058 
 108   1.0000      -0.463556       -12.6140 
 109   1.0000      -0.458915       -12.4877 
 110   1.0000      -0.453878       -12.3507 
 111   1.0000      -0.449470       -12.2307 
 112   1.0000      -0.448591       -12.2068 
 113   1.0000      -0.448166       -12.1952 
 114   1.0000      -0.446795       -12.1579 
 115   1.0000      -0.439492       -11.9592 
 116   1.0000      -0.427056       -11.6208 
 117   1.0000      -0.424693       -11.5565 
 118   1.0000      -0.421155       -11.4602 
 119   1.0000      -0.415945       -11.3184 
 120   1.0000      -0.412189       -11.2162 
 121   1.0000      -0.405486       -11.0338 
 122   1.0000      -0.398553       -10.8452 
 123   1.0000      -0.391269       -10.6470 
 124   1.0000      -0.385836       -10.4991 
 125   1.0000      -0.382125       -10.3982 
 126   1.0000      -0.369961       -10.0671 
 127   1.0000      -0.367433        -9.9983 
 128   1.0000      -0.352179        -9.5833 
 129   1.0000      -0.329478        -8.9656 
 130   1.0000      -0.325031        -8.8445 
 131   1.0000      -0.320564        -8.7230 
 132   1.0000      -0.311102        -8.4655 
 133   1.0000      -0.300547        -8.1783 
 134   1.0000      -0.292743        -7.9660 
 135   1.0000      -0.290354        -7.9009 
 136   1.0000      -0.285568        -7.7707 
 137   1.0000      -0.284487        -7.7413 
 138   1.0000      -0.281699        -7.6654 
 139   1.0000      -0.278155        -7.5690 
 140   1.0000      -0.267134        -7.2691 
 141   1.0000      -0.265039        -7.2121 
 142   1.0000      -0.263002        -7.1566 
 143   1.0000      -0.262133        -7.1330 
 144   1.0000      -0.261831        -7.1248 
 145   1.0000      -0.261143        -7.1061 
 146   1.0000      -0.259501        -7.0614 
 147   1.0000      -0.255992        -6.9659 
 148   1.0000      -0.254141        -6.9155 
 149   1.0000      -0.253554        -6.8996 
 150   1.0000      -0.250528        -6.8172 
 151   1.0000      -0.249045        -6.7769 
 152   1.0000      -0.235910        -6.4194 
 153   1.0000      -0.224653        -6.1131 
 154   1.0000      -0.219633        -5.9765 
 155   1.0000      -0.216850        -5.9008 
 156   1.0000      -0.216205        -5.8832 
 157   1.0000      -0.215082        -5.8527 
 158   1.0000      -0.203586        -5.5398 
 159   1.0000      -0.198132        -5.3914 
 160   1.0000      -0.194532        -5.2935 
 161   1.0000      -0.191281        -5.2050 
 162   0.0000      -0.181140        -4.9291 
 163   0.0000      -0.132902        -3.6164 
 164   0.0000      -0.129763        -3.5310 
 165   0.0000      -0.102583        -2.7914 
 166   0.0000      -0.074264        -2.0208 
 167   0.0000      -0.070669        -1.9230 
 168   0.0000      -0.067451        -1.8354 
 169   0.0000      -0.059692        -1.6243 
 170   0.0000      -0.057491        -1.5644 
 171   0.0000      -0.045033        -1.2254 
 172   0.0000      -0.017934        -0.4880 

                 SPIN DOWN ORBITALS
  NO   OCC          E(Eh)            E(eV) 
   0   1.0000   -1878.066727    -51104.7938 
   1   1.0000    -295.191364     -8032.5654 
   2   1.0000    -262.819013     -7151.6689 
   3   1.0000    -262.817445     -7151.6263 
   4   1.0000    -262.816357     -7151.5967 
   5   1.0000     -64.552293     -1756.5572 
   6   1.0000     -54.598341     -1485.6964 
   7   1.0000     -54.588722     -1485.4347 
   8   1.0000     -54.582029     -1485.2525 
   9   1.0000     -41.335688     -1124.8013 
  10   1.0000     -41.331019     -1124.6742 
  11   1.0000     -41.325717     -1124.5299 
  12   1.0000     -41.320226     -1124.3805 
  13   1.0000     -41.319132     -1124.3507 
  14   1.0000     -18.796389      -511.4758 
  15   1.0000     -18.796007      -511.4654 
  16   1.0000     -18.795160      -511.4423 
  17   1.0000     -18.794779      -511.4319 
  18   1.0000     -18.794422      -511.4222 
  19   1.0000     -18.794108      -511.4137 
  20   1.0000     -18.792873      -511.3801 
  21   1.0000     -18.792078      -511.3584 
  22   1.0000     -18.792071      -511.3583 
  23   1.0000     -14.239420      -387.4743 
  24   1.0000     -14.239028      -387.4637 
  25   1.0000     -14.237144      -387.4124 
  26   1.0000     -14.133248      -384.5852 
  27   1.0000     -14.130400      -384.5077 
  28   1.0000     -14.065798      -382.7498 
  29   1.0000     -14.061855      -382.6425 
  30   1.0000     -14.057226      -382.5166 
  31   1.0000     -14.056812      -382.5053 
  32   1.0000     -12.775747      -347.6457 
  33   1.0000     -10.024402      -272.7778 
  34   1.0000     -10.024393      -272.7776 
  35   1.0000      -9.985519      -271.7198 
  36   1.0000      -9.985045      -271.7069 
  37   1.0000      -9.971250      -271.3315 
  38   1.0000      -9.968168      -271.2476 
  39   1.0000      -9.961607      -271.0691 
  40   1.0000      -9.961605      -271.0691 
  41   1.0000      -9.959542      -271.0129 
  42   1.0000      -9.959485      -271.0114 
  43   1.0000      -9.958078      -270.9731 
  44   1.0000      -9.957603      -270.9602 
  45   1.0000      -9.951626      -270.7975 
  46   1.0000      -9.947833      -270.6943 
  47   1.0000      -9.946827      -270.6669 
  48   1.0000      -9.946305      -270.6527 
  49   1.0000      -9.929695      -270.2007 
  50   1.0000      -9.926671      -270.1185 
  51   1.0000      -9.510303      -258.7885 
  52   1.0000      -9.494623      -258.3618 
  53   1.0000      -9.483422      -258.0570 
  54   1.0000      -4.965584      -135.1204 
  55   1.0000      -4.954906      -134.8299 
  56   1.0000      -4.945576      -134.5760 
  57   1.0000      -4.928184      -134.1027 
  58   1.0000      -4.927130      -134.0740 
  59   1.0000      -1.584194       -43.1081 
  60   1.0000      -1.139774       -31.0148 
  61   1.0000      -1.138719       -30.9861 
  62   1.0000      -1.135864       -30.9084 
  63   1.0000      -1.015365       -27.6295 
  64   1.0000      -1.012015       -27.5383 
  65   1.0000      -0.954154       -25.9639 
  66   1.0000      -0.953132       -25.9360 
  67   1.0000      -0.948624       -25.8134 
  68   1.0000      -0.930514       -25.3206 
  69   1.0000      -0.922729       -25.1087 
  70   1.0000      -0.920306       -25.0428 
  71   1.0000      -0.918009       -24.9803 
  72   1.0000      -0.911711       -24.8089 
  73   1.0000      -0.830238       -22.5919 
  74   1.0000      -0.824144       -22.4261 
  75   1.0000      -0.818382       -22.2693 
  76   1.0000      -0.813088       -22.1252 
  77   1.0000      -0.805793       -21.9267 
  78   1.0000      -0.803172       -21.8554 
  79   1.0000      -0.783548       -21.3214 
  80   1.0000      -0.764776       -20.8106 
  81   1.0000      -0.754182       -20.5223 
  82   1.0000      -0.747920       -20.3519 
  83   1.0000      -0.715016       -19.4566 
  84   1.0000      -0.709814       -19.3150 
  85   1.0000      -0.649392       -17.6708 
  86   1.0000      -0.641061       -17.4442 
  87   1.0000      -0.627806       -17.0835 
  88   1.0000      -0.608646       -16.5621 
  89   1.0000      -0.582342       -15.8463 
  90   1.0000      -0.575689       -15.6653 
  91   1.0000      -0.571855       -15.5610 
  92   1.0000      -0.560633       -15.2556 
  93   1.0000      -0.545909       -14.8549 
  94   1.0000      -0.538809       -14.6617 
  95   1.0000      -0.536708       -14.6046 
  96   1.0000      -0.536483       -14.5984 
  97   1.0000      -0.533988       -14.5305 
  98   1.0000      -0.526677       -14.3316 
  99   1.0000      -0.512785       -13.9536 
 100   1.0000      -0.488556       -13.2943 
 101   1.0000      -0.481502       -13.1023 
 102   1.0000      -0.477288       -12.9877 
 103   1.0000      -0.475806       -12.9473 
 104   1.0000      -0.471903       -12.8411 
 105   1.0000      -0.471125       -12.8200 
 106   1.0000      -0.468411       -12.7461 
 107   1.0000      -0.466971       -12.7069 
 108   1.0000      -0.464082       -12.6283 
 109   1.0000      -0.459127       -12.4935 
 110   1.0000      -0.454033       -12.3549 
 111   1.0000      -0.450316       -12.2537 
 112   1.0000      -0.449178       -12.2228 
 113   1.0000      -0.448636       -12.2080 
 114   1.0000      -0.447375       -12.1737 
 115   1.0000      -0.439505       -11.9595 
 116   1.0000      -0.427082       -11.6215 
 117   1.0000      -0.424704       -11.5568 
 118   1.0000      -0.421184       -11.4610 
 119   1.0000      -0.415908       -11.3174 
 120   1.0000      -0.412168       -11.2157 
 121   1.0000      -0.405399       -11.0315 
 122   1.0000      -0.398516       -10.8442 
 123   1.0000      -0.391307       -10.6480 
 124   1.0000      -0.385793       -10.4980 
 125   1.0000      -0.382103       -10.3975 
 126   1.0000      -0.369971       -10.0674 
 127   1.0000      -0.367271        -9.9939 
 128   1.0000      -0.352193        -9.5837 
 129   1.0000      -0.328241        -8.9319 
 130   1.0000      -0.324828        -8.8390 
 131   1.0000      -0.320536        -8.7222 
 132   1.0000      -0.308669        -8.3993 
 133   1.0000      -0.300372        -8.1735 
 134   1.0000      -0.293241        -7.9795 
 135   1.0000      -0.289995        -7.8912 
 136   1.0000      -0.285036        -7.7562 
 137   1.0000      -0.283503        -7.7145 
 138   1.0000      -0.281597        -7.6626 
 139   1.0000      -0.277355        -7.5472 
 140   1.0000      -0.267301        -7.2736 
 141   1.0000      -0.265075        -7.2131 
 142   1.0000      -0.264269        -7.1911 
 143   1.0000      -0.263785        -7.1780 
 144   1.0000      -0.262898        -7.1538 
 145   1.0000      -0.261231        -7.1085 
 146   1.0000      -0.260679        -7.0934 
 147   1.0000      -0.256187        -6.9712 
 148   1.0000      -0.254450        -6.9239 
 149   1.0000      -0.253877        -6.9084 
 150   1.0000      -0.250781        -6.8241 
 151   1.0000      -0.249693        -6.7945 
 152   1.0000      -0.235764        -6.4155 
 153   1.0000      -0.215930        -5.8758 
 154   1.0000      -0.214477        -5.8362 
 155   1.0000      -0.210238        -5.7209 
 156   0.0000      -0.133245        -3.6258 
 157   0.0000      -0.129858        -3.5336 
 158   0.0000      -0.102831        -2.7982 
 159   0.0000      -0.074539        -2.0283 
 160   0.0000      -0.071198        -1.9374 
 161   0.0000      -0.068466        -1.8631 
 162   0.0000      -0.061194        -1.6652 
 163   0.0000      -0.058120        -1.5815 
 164   0.0000      -0.055305        -1.5049 
 165   0.0000      -0.048835        -1.3289 
 166   0.0000      -0.047143        -1.2828 
*Only the first 10 virtual orbitals were printed.

                    ********************************
                    * MULLIKEN POPULATION ANALYSIS *
                    ********************************

--------------------------------------------
MULLIKEN ATOMIC CHARGES AND SPIN POPULATIONS
--------------------------------------------
   0 Eu:    0.931014    6.335317
   1 O :   -0.357291   -0.031397
   2 O :   -0.363401   -0.039885
   3 O :   -0.391575   -0.049846
   4 O :   -0.367628   -0.023480
   5 O :   -0.352813   -0.057298
   6 O :   -0.369252   -0.049178
   7 O :   -0.286708   -0.031578
   8 O :   -0.298464   -0.021896
   9 N :   -0.178276   -0.019769
  10 N :   -0.188856   -0.009929
  11 N :    0.179098    0.000205
  12 N :    0.535056    0.007738
  13 O :   -0.301609   -0.016973
  14 N :    0.163552   -0.000307
  15 N :    0.531092    0.006295
  16 N :    0.537433    0.009966
  17 N :   -0.199096   -0.012040
  18 N :   -0.185075   -0.008779
  19 C :    0.063843    0.000157
  20 C :    0.121676    0.002868
  21 C :    0.050961   -0.000873
  22 C :    0.060373   -0.000364
  23 C :   -0.151418    0.001478
  24 H :    0.164517   -0.000083
  25 C :    0.160998    0.001991
  26 C :   -0.143454   -0.000835
  27 H :    0.165102   -0.000031
  28 C :   -0.152911   -0.000120
  29 H :    0.155083   -0.000027
  30 C :   -0.151713   -0.000223
  31 H :    0.154349   -0.000085
  32 C :    0.173331    0.001488
  33 C :   -0.128390    0.001907
  34 H :    0.150918   -0.000171
  35 C :   -0.146605    0.001295
  36 H :    0.164206   -0.000078
  37 C :   -0.108153    0.002903
  38 H :    0.181663   -0.000129
  39 C :   -0.128397   -0.000942
  40 H :    0.152225   -0.000173
  41 C :   -0.124480   -0.000686
  42 H :    0.152302   -0.000005
  43 C :   -0.126742    0.001859
  44 H :    0.151275   -0.000126
  45 C :   -0.101392    0.002622
  46 H :    0.187943   -0.000141
  47 C :   -0.147753   -0.000645
  48 H :    0.163443    0.000005
Sum of atomic charges         :   -0.0000000
Sum of atomic spin populations:    6.0000000

-----------------------------------------------------
MULLIKEN REDUCED ORBITAL CHARGES AND SPIN POPULATIONS
-----------------------------------------------------
CHARGE
  0 Eus       :    10.168566  s :    10.168566
      pz      :     8.088690  p :    24.293347
      px      :     8.094656
      py      :     8.110001
      dz2     :     4.219956  d :    21.053585
      dxz     :     4.198591
      dyz     :     4.229417
      dx2y2   :     4.218425
      dxy     :     4.187196
      f0      :     0.803910  f :     6.553488
      f+1     :     1.027718
      f-1     :     0.959643
      f+2     :     1.017816
      f-2     :     1.033795
      f+3     :     0.747290
      f-3     :     0.963317

  1 O s       :     3.915409  s :     3.915409
      pz      :     1.755118  p :     4.402997
      px      :     1.558517
      py      :     1.089362
      dz2     :     0.005767  d :     0.036242
      dxz     :     0.000998
      dyz     :     0.006858
      dx2y2   :     0.012703
      dxy     :     0.009915
      f0      :     0.000204  f :     0.002643
      f+1     :     0.000063
      f-1     :     0.000538
      f+2     :     0.000301
      f-2     :     0.000080
      f+3     :     0.000705
      f-3     :     0.000751

  2 O s       :     3.910051  s :     3.910051
      pz      :     1.605225  p :     4.415054
      px      :     1.144438
      py      :     1.665392
      dz2     :     0.004374  d :     0.035723
      dxz     :     0.008875
      dyz     :     0.002434
      dx2y2   :     0.011864
      dxy     :     0.008176
      f0      :     0.000268  f :     0.002574
      f+1     :     0.000437
      f-1     :     0.000035
      f+2     :     0.000444
      f-2     :     0.000254
      f+3     :     0.000623
      f-3     :     0.000513

  3 O s       :     3.920197  s :     3.920197
      pz      :     1.542466  p :     4.433050
      px      :     1.723327
      py      :     1.167257
      dz2     :     0.005132  d :     0.035762
      dxz     :     0.001716
      dyz     :     0.010930
      dx2y2   :     0.011610
      dxy     :     0.006374
      f0      :     0.000261  f :     0.002566
      f+1     :     0.000027
      f-1     :     0.000491
      f+2     :     0.000555
      f-2     :     0.000244
      f+3     :     0.000422
      f-3     :     0.000566

  4 O s       :     3.906520  s :     3.906520
      pz      :     1.509771  p :     4.422685
      px      :     1.625957
      py      :     1.286957
      dz2     :     0.004674  d :     0.035800
      dxz     :     0.005784
      dyz     :     0.008663
      dx2y2   :     0.008031
      dxy     :     0.008648
      f0      :     0.000274  f :     0.002623
      f+1     :     0.000144
      f-1     :     0.000404
      f+2     :     0.000366
      f-2     :     0.000634
      f+3     :     0.000467
      f-3     :     0.000334

  5 O s       :     3.886578  s :     3.886578
      pz      :     1.516752  p :     4.427016
      px      :     1.293611
      py      :     1.616652
      dz2     :     0.005414  d :     0.036536
      dxz     :     0.009089
      dyz     :     0.004287
      dx2y2   :     0.007174
      dxy     :     0.010572
      f0      :     0.000268  f :     0.002684
      f+1     :     0.000417
      f-1     :     0.000147
      f+2     :     0.000361
      f-2     :     0.000506
      f+3     :     0.000365
      f-3     :     0.000619

  6 O s       :     3.903251  s :     3.903251
      pz      :     1.180953  p :     4.428095
      px      :     1.597703
      py      :     1.649439
      dz2     :     0.011954  d :     0.035329
      dxz     :     0.007133
      dyz     :     0.011174
      dx2y2   :     0.002233
      dxy     :     0.002835
      f0      :     0.000706  f :     0.002577
      f+1     :     0.000430
      f-1     :     0.000885
      f+2     :     0.000233
      f-2     :     0.000263
      f+3     :     0.000033
      f-3     :     0.000027

  7 O s       :     3.892632  s :     3.892632
      pz      :     1.510813  p :     4.349462
      px      :     1.235189
      py      :     1.603460
      dz2     :     0.004992  d :     0.041334
      dxz     :     0.009614
      dyz     :     0.002516
      dx2y2   :     0.011532
      dxy     :     0.012680
      f0      :     0.000332  f :     0.003280
      f+1     :     0.000411
      f-1     :     0.000130
      f+2     :     0.000241
      f-2     :     0.000392
      f+3     :     0.000809
      f-3     :     0.000965

  8 O s       :     3.895799  s :     3.895799
      pz      :     1.355884  p :     4.358376
      px      :     1.421006
      py      :     1.581485
      dz2     :     0.010194  d :     0.041024
      dxz     :     0.009235
      dyz     :     0.012667
      dx2y2   :     0.004241
      dxy     :     0.004687
      f0      :     0.000518  f :     0.003266
      f+1     :     0.000392
      f-1     :     0.000955
      f+2     :     0.000561
      f-2     :     0.000637
      f+3     :     0.000093
      f-3     :     0.000110

  9 N s       :     3.607501  s :     3.607501
      pz      :     1.027623  p :     3.502182
      px      :     1.130962
      py      :     1.343597
      dz2     :     0.016215  d :     0.064847
      dxz     :     0.012506
      dyz     :     0.013392
      dx2y2   :     0.011315
      dxy     :     0.011420
      f0      :     0.000613  f :     0.003746
      f+1     :     0.000738
      f-1     :     0.000446
      f+2     :     0.000724
      f-2     :     0.000702
      f+3     :     0.000299
      f-3     :     0.000223

 10 N s       :     3.597031  s :     3.597031
      pz      :     1.209723  p :     3.524208
      px      :     1.293974
      py      :     1.020511
      dz2     :     0.012620  d :     0.063915
      dxz     :     0.008370
      dyz     :     0.014345
      dx2y2   :     0.013911
      dxy     :     0.014669
      f0      :     0.000541  f :     0.003702
      f+1     :     0.000208
      f-1     :     0.000635
      f+2     :     0.000601
      f-2     :     0.000562
      f+3     :     0.000418
      f-3     :     0.000737

 11 N s       :     3.385940  s :     3.385940
      pz      :     1.129264  p :     3.300742
      px      :     1.166043
      py      :     1.005435
      dz2     :     0.031201  d :     0.127373
      dxz     :     0.017618
      dyz     :     0.024091
      dx2y2   :     0.026880
      dxy     :     0.027582
      f0      :     0.000730  f :     0.006846
      f+1     :     0.001004
      f-1     :     0.000854
      f+2     :     0.001144
      f-2     :     0.001197
      f+3     :     0.000883
      f-3     :     0.001033

 12 N s       :     3.219374  s :     3.219374
      pz      :     0.891016  p :     2.928366
      px      :     1.138412
      py      :     0.898938
      dz2     :     0.074563  d :     0.300467
      dxz     :     0.051911
      dyz     :     0.088827
      dx2y2   :     0.036061
      dxy     :     0.049104
      f0      :     0.004317  f :     0.016737
      f+1     :     0.001994
      f-1     :     0.002314
      f+2     :     0.003113
      f-2     :     0.002003
      f+3     :     0.001601
      f-3     :     0.001396

 13 O s       :     3.893946  s :     3.893946
      pz      :     1.274178  p :     4.363449
      px      :     1.608326
      py      :     1.480945
      dz2     :     0.011084  d :     0.040949
      dxz     :     0.009130
      dyz     :     0.010145
      dx2y2   :     0.004268
      dxy     :     0.006321
      f0      :     0.000504  f :     0.003266
      f+1     :     0.000542
      f-1     :     0.000559
      f+2     :     0.000472
      f-2     :     0.000740
      f+3     :     0.000246
      f-3     :     0.000204

 14 N s       :     3.392708  s :     3.392708
      pz      :     1.088503  p :     3.309186
      px      :     1.174081
      py      :     1.046603
      dz2     :     0.025621  d :     0.127707
      dxz     :     0.024186
      dyz     :     0.028676
      dx2y2   :     0.026988
      dxy     :     0.022236
      f0      :     0.001027  f :     0.006847
      f+1     :     0.001031
      f-1     :     0.000700
      f+2     :     0.000985
      f-2     :     0.000975
      f+3     :     0.000963
      f-3     :     0.001166

 15 N s       :     3.222328  s :     3.222328
      pz      :     0.997445  p :     2.929851
      px      :     0.933364
      py      :     0.999042
      dz2     :     0.063788  d :     0.300007
      dxz     :     0.063208
      dyz     :     0.041626
      dx2y2   :     0.067446
      dxy     :     0.063938
      f0      :     0.001822  f :     0.016722
      f+1     :     0.002377
      f-1     :     0.002229
      f+2     :     0.003543
      f-2     :     0.001706
      f+3     :     0.002027
      f-3     :     0.003016

 16 N s       :     3.221387  s :     3.221387
      pz      :     1.110434  p :     2.922280
      px      :     0.877654
      py      :     0.934192
      dz2     :     0.030163  d :     0.302169
      dxz     :     0.059950
      dyz     :     0.040257
      dx2y2   :     0.087186
      dxy     :     0.084612
      f0      :     0.001387  f :     0.016732
      f+1     :     0.001601
      f-1     :     0.001584
      f+2     :     0.002165
      f-2     :     0.002366
      f+3     :     0.005337
      f-3     :     0.002291

 17 N s       :     3.670183  s :     3.670183
      pz      :     1.312915  p :     3.447779
      px      :     1.112253
      py      :     1.022612
      dz2     :     0.015315  d :     0.075791
      dxz     :     0.011328
      dyz     :     0.014520
      dx2y2   :     0.019291
      dxy     :     0.015337
      f0      :     0.000758  f :     0.005343
      f+1     :     0.000554
      f-1     :     0.000591
      f+2     :     0.000570
      f-2     :     0.000933
      f+3     :     0.000884
      f-3     :     0.001052

 18 N s       :     3.668559  s :     3.668559
      pz      :     1.174639  p :     3.434898
      px      :     1.086728
      py      :     1.173531
      dz2     :     0.013734  d :     0.076267
      dxz     :     0.013382
      dyz     :     0.017535
      dx2y2   :     0.017218
      dxy     :     0.014399
      f0      :     0.000688  f :     0.005352
      f+1     :     0.000976
      f-1     :     0.000515
[...]
  60:       683.04      4.693853      0.594910
  61:       702.42     34.241246      0.369803
  62:       703.85     22.336946      0.736552
  63:       706.08     41.654919      0.135871
  64:       709.76      3.345097      0.192759
  65:       714.41    366.546942      0.173481
  66:       722.01     74.104297      0.179601
  67:       741.70     71.926538      0.219458
  68:       746.84      1.837118      0.733142
  69:       766.45     16.362376      0.380348
  70:       776.27     35.536896      0.300422
  71:       779.23      2.608906      0.744110
  72:       785.88      1.594887      0.456786
  73:       791.33      0.263347      0.495311
  74:       794.18      0.598122      0.720202
  75:       798.18     25.183384      0.178742
  76:       806.02     77.152100      0.376152
  77:       816.88      8.397707      0.695450
  78:       855.81     12.656374      0.189454
  79:       865.40     23.840993      0.197739
  80:       871.13     16.839887      0.031267
  81:       880.24    184.898820      0.152609
  82:       886.89      6.774990      0.345314
  83:       898.81      9.809738      0.423982
  84:       902.48      2.899036      0.083603
  85:       908.36     18.265089      0.128070
  86:       910.84      1.065613      0.199994
  87:       940.17      5.357596      0.666990
  88:       953.80     63.063133      0.150811
  89:      1007.04    588.122848      0.448297
  90:      1007.55    356.983013      0.586025
  91:      1015.96     22.910973      0.575088
  92:      1034.64      6.761095      0.268948
  93:      1039.12      5.638683      0.139339
  94:      1042.47     15.373813      0.631085
  95:      1046.51     38.666608      0.648561
  96:      1083.16     56.830488      0.288441
  97:      1093.51      2.812499      0.733025
  98:      1133.06     40.040647      0.047820
  99:      1135.40     14.079310      0.418277
 100:      1137.12     50.921107      0.230449
 101:      1143.71     14.545114      0.749142
 102:      1189.41      8.721889      0.654523
 103:      1196.18      6.052704      0.284400
 104:      1212.27     44.712692      0.552270
 105:      1216.12     25.472651      0.544205
 106:      1218.35      7.356798      0.046390
 107:      1222.67     98.817188      0.229647
 108:      1237.12     26.456274      0.457409
 109:      1240.30     30.355571      0.220798
 110:      1266.99     10.316304      0.299041
 111:      1295.73      3.166781      0.651157
 112:      1339.31     10.064968      0.088314
 113:      1342.62     37.721759      0.723126
 114:      1347.43    625.376735      0.086802
 115:      1351.98     98.499580      0.290435
 116:      1379.71    122.133868      0.691997
 117:      1387.95    147.437537      0.292015
 118:      1400.83    120.243597      0.562225
 119:      1402.70    257.748744      0.296853
 120:      1405.87    101.024121      0.392201
 121:      1412.22    117.571139      0.164349
 122:      1432.63    153.492847      0.519796
 123:      1472.42    532.969230      0.088963
 124:      1483.70    796.263744      0.748428
 125:      1488.29    516.394330      0.669743
 126:      1493.31    188.179740      0.662803
 127:      1497.61   1332.734458      0.152464
 128:      1504.89      9.767964      0.736552
 129:      1517.10      5.981330      0.216209
 130:      1526.41     36.731747      0.343725
 131:      1558.92     36.636090      0.595366
 132:      1588.05    147.544764      0.180313
 133:      1603.83    381.913322      0.711251
 134:      1609.63     37.480804      0.130295
 135:      3098.07     43.767875      0.743235
 136:      3109.23    129.280232      0.404246
 137:      3110.43    115.871917      0.627124
 138:      3114.62    534.834244      0.177797
 139:      3142.84    320.684963      0.023010
 140:      3147.44    143.342988      0.400436
 141:      3179.34    174.474577      0.126780
 142:      3187.90    118.483357      0.333742
 143:      3198.66    226.016932      0.080685
 144:      3201.66    181.058650      0.446694
 145:      3213.97    146.955952      0.554639
 146:      3216.70    262.428603      0.142507

The first frequency considered to be a vibration is 7
The total number of vibrations considered is 140


--------------------------
THERMOCHEMISTRY AT 298.15K
--------------------------

Temperature         ...   298.15 K
Pressure            ...     1.00 atm
Total Mass          ...   650.31 AMU
Quasi RRHO          ...     True
Cut-Off Frequency   ...     1.00 cm^-1

Throughout the following assumptions are being made:
  (1) The electronic state is orbitally nondegenerate
      but the spin degeneracy is treated
  (2) There are no thermally accessible electronically excited states
  (3) Hindered rotations indicated by low frequency modes are not
      treated as such but are treated as vibrations and this may
      cause some error
  (4) All equations used are the standard statistical mechanics
      equations for an ideal gas
  (5) All vibrations are strictly harmonic

freq.      16.79  E(vib)   ...       0.57 
freq.      21.61  E(vib)   ...       0.56 
freq.      28.99  E(vib)   ...       0.55 
freq.      34.66  E(vib)   ...       0.54 
freq.      37.94  E(vib)   ...       0.54 
freq.      52.98  E(vib)   ...       0.52 
freq.      56.05  E(vib)   ...       0.52 
freq.      66.28  E(vib)   ...       0.50 
freq.      73.54  E(vib)   ...       0.49 
freq.      79.92  E(vib)   ...       0.49 
freq.      81.60  E(vib)   ...       0.48 
freq.      94.26  E(vib)   ...       0.47 
freq.     102.69  E(vib)   ...       0.46 
freq.     110.90  E(vib)   ...       0.45 
freq.     116.40  E(vib)   ...       0.44 
freq.     127.03  E(vib)   ...       0.43 
freq.     128.93  E(vib)   ...       0.43 
freq.     138.96  E(vib)   ...       0.42 
freq.     149.24  E(vib)   ...       0.40 
freq.     153.84  E(vib)   ...       0.40 
freq.     156.23  E(vib)   ...       0.40 
freq.     168.53  E(vib)   ...       0.38 
freq.     173.26  E(vib)   ...       0.38 
freq.     178.25  E(vib)   ...       0.37 
freq.     182.83  E(vib)   ...       0.37 
freq.     191.75  E(vib)   ...       0.36 
freq.     197.46  E(vib)   ...       0.35 
freq.     202.33  E(vib)   ...       0.35 
freq.     212.33  E(vib)   ...       0.34 
freq.     229.24  E(vib)   ...       0.32 
freq.     256.01  E(vib)   ...       0.30 
freq.     297.17  E(vib)   ...       0.27 
freq.     305.66  E(vib)   ...       0.26 
freq.     332.75  E(vib)   ...       0.24 
freq.     339.49  E(vib)   ...       0.23 
freq.     405.81  E(vib)   ...       0.19 
freq.     427.37  E(vib)   ...       0.18 
freq.     431.28  E(vib)   ...       0.18 
freq.     434.94  E(vib)   ...       0.17 
freq.     499.06  E(vib)   ...       0.14 
freq.     545.25  E(vib)   ...       0.12 
freq.     547.92  E(vib)   ...       0.12 
freq.     569.42  E(vib)   ...       0.11 
freq.     593.03  E(vib)   ...       0.10 
freq.     595.37  E(vib)   ...       0.10 
freq.     596.94  E(vib)   ...       0.10 
freq.     614.94  E(vib)   ...       0.10 
freq.     633.71  E(vib)   ...       0.09 
freq.     639.84  E(vib)   ...       0.09 
freq.     650.99  E(vib)   ...       0.08 
freq.     672.31  E(vib)   ...       0.08 
freq.     679.42  E(vib)   ...       0.08 
freq.     681.42  E(vib)   ...       0.08 
freq.     683.04  E(vib)   ...       0.08 
freq.     702.42  E(vib)   ...       0.07 
freq.     703.85  E(vib)   ...       0.07 
freq.     706.08  E(vib)   ...       0.07 
freq.     709.76  E(vib)   ...       0.07 
freq.     714.41  E(vib)   ...       0.07 
freq.     722.01  E(vib)   ...       0.07 
freq.     741.70  E(vib)   ...       0.06 
freq.     746.84  E(vib)   ...       0.06 
freq.     766.45  E(vib)   ...       0.06 
freq.     776.27  E(vib)   ...       0.05 
freq.     779.23  E(vib)   ...       0.05 
freq.     785.88  E(vib)   ...       0.05 
freq.     791.33  E(vib)   ...       0.05 
freq.     794.18  E(vib)   ...       0.05 
freq.     798.18  E(vib)   ...       0.05 
freq.     806.02  E(vib)   ...       0.05 
freq.     816.88  E(vib)   ...       0.05 
freq.     855.81  E(vib)   ...       0.04 
freq.     865.40  E(vib)   ...       0.04 
freq.     871.13  E(vib)   ...       0.04 
freq.     880.24  E(vib)   ...       0.04 
freq.     886.89  E(vib)   ...       0.04 
freq.     898.81  E(vib)   ...       0.03 
freq.     902.48  E(vib)   ...       0.03 
freq.     908.36  E(vib)   ...       0.03 
freq.     910.84  E(vib)   ...       0.03 
freq.     940.17  E(vib)   ...       0.03 
freq.     953.80  E(vib)   ...       0.03 
freq.    1007.04  E(vib)   ...       0.02 
freq.    1007.55  E(vib)   ...       0.02 
freq.    1015.96  E(vib)   ...       0.02 
freq.    1034.64  E(vib)   ...       0.02 
freq.    1039.12  E(vib)   ...       0.02 
freq.    1042.47  E(vib)   ...       0.02 
freq.    1046.51  E(vib)   ...       0.02 
freq.    1083.16  E(vib)   ...       0.02 
freq.    1093.51  E(vib)   ...       0.02 
freq.    1133.06  E(vib)   ...       0.01 
freq.    1135.40  E(vib)   ...       0.01 
freq.    1137.12  E(vib)   ...       0.01 
freq.    1143.71  E(vib)   ...       0.01 
freq.    1189.41  E(vib)   ...       0.01 
freq.    1196.18  E(vib)   ...       0.01 
freq.    1212.27  E(vib)   ...       0.01 
freq.    1216.12  E(vib)   ...       0.01 
freq.    1218.35  E(vib)   ...       0.01 
freq.    1222.67  E(vib)   ...       0.01 
freq.    1237.12  E(vib)   ...       0.01 
freq.    1240.30  E(vib)   ...       0.01 
freq.    1266.99  E(vib)   ...       0.01 
freq.    1295.73  E(vib)   ...       0.01 
freq.    1339.31  E(vib)   ...       0.01 
freq.    1342.62  E(vib)   ...       0.01 
freq.    1347.43  E(vib)   ...       0.01 
freq.    1351.98  E(vib)   ...       0.01 
freq.    1379.71  E(vib)   ...       0.01 
freq.    1387.95  E(vib)   ...       0.00 
freq.    1400.83  E(vib)   ...       0.00 
freq.    1402.70  E(vib)   ...       0.00 
freq.    1405.87  E(vib)   ...       0.00 
freq.    1412.22  E(vib)   ...       0.00 
freq.    1432.63  E(vib)   ...       0.00 
freq.    1472.42  E(vib)   ...       0.00 
freq.    1483.70  E(vib)   ...       0.00 
freq.    1488.29  E(vib)   ...       0.00 
freq.    1493.31  E(vib)   ...       0.00 
freq.    1497.61  E(vib)   ...       0.00 
freq.    1504.89  E(vib)   ...       0.00 
freq.    1517.10  E(vib)   ...       0.00 
freq.    1526.41  E(vib)   ...       0.00 
freq.    1558.92  E(vib)   ...       0.00 
freq.    1588.05  E(vib)   ...       0.00 
freq.    1603.83  E(vib)   ...       0.00 
freq.    1609.63  E(vib)   ...       0.00 
freq.    3098.07  E(vib)   ...       0.00 
freq.    3109.23  E(vib)   ...       0.00 
freq.    3110.43  E(vib)   ...       0.00 
freq.    3114.62  E(vib)   ...       0.00 
freq.    3142.84  E(vib)   ...       0.00 
freq.    3147.44  E(vib)   ...       0.00 
freq.    3179.34  E(vib)   ...       0.00 
freq.    3187.90  E(vib)   ...       0.00 
freq.    3198.66  E(vib)   ...       0.00 
freq.    3201.66  E(vib)   ...       0.00 
freq.    3213.97  E(vib)   ...       0.00 
freq.    3216.70  E(vib)   ...       0.00 

------------
INNER ENERGY
------------

The inner energy is: U= E(el) + E(ZPE) + E(vib) + E(rot) + E(trans)
    E(el)   - is the total energy from the electronic structure calculation
              = E(kin-el) + E(nuc-el) + E(el-el) + E(nuc-nuc)
    E(ZPE)  - the the zero temperature vibrational energy from the frequency calculation
    E(vib)  - the the finite temperature correction to E(ZPE) due to population
              of excited vibrational states
    E(rot)  - is the rotational thermal energy
    E(trans)- is the translational thermal energy

Summary of contributions to the inner energy U:
Electronic energy                ... -12941.26919294 Eh
Zero point energy                ...      0.31077871 Eh     195.02 kcal/mol
Thermal vibrational correction   ...      0.02956335 Eh      18.55 kcal/mol
Thermal rotational correction    ...      0.00141627 Eh       0.89 kcal/mol
Thermal translational correction ...      0.00141627 Eh       0.89 kcal/mol
-----------------------------------------------------------------------
Total thermal energy                 -12940.92601834 Eh


Summary of corrections to the electronic energy:
(perhaps to be used in another calculation)
Total thermal correction                  0.03239589 Eh      20.33 kcal/mol
Non-thermal (ZPE) correction              0.31077871 Eh     195.02 kcal/mol
-----------------------------------------------------------------------
Total correction                          0.34317460 Eh     215.34 kcal/mol


--------
ENTHALPY
--------

The enthalpy is H = U + kB*T
                kB is Boltzmann's constant
Total thermal energy              ... -12940.92601834 Eh 
Thermal Enthalpy correction       ...      0.00094421 Eh       0.59 kcal/mol
-----------------------------------------------------------------------
Total Enthalpy                    ... -12940.92507413 Eh


Note: Only C1 symmetry has been detected, increase convergence thresholds 
      if your molecule has a higher symmetry. Symmetry factor of 1.0 is   
      used for the rotational entropy correction. 
 

Note: Rotational entropy computed according to Herzberg 
Infrared and Raman Spectra, Chapter V,1, Van Nostrand Reinhold, 1945 
Point Group:  C1, Symmetry Number:   1  
Rotational constants in cm-1:     0.004128     0.003854     0.002762 

Vibrational entropy computed according to the QRRHO of S. Grimme
Chem.Eur.J. 2012 18 9955 using a reference frequency of 100.0 cm-1


-------
ENTROPY
-------

The entropy contributions are T*S = T*(S(el)+S(vib)+S(rot)+S(trans))
     S(el)   - electronic entropy
     S(vib)  - vibrational entropy
     S(rot)  - rotational entropy
     S(trans)- translational entropy
The entropies will be listed as multiplied by the temperature to get
units of energy

Electronic entropy                ...      0.00183729 Eh      1.15 kcal/mol
Vibrational entropy               ...      0.05438519 Eh     34.13 kcal/mol
Rotational entropy                ...      0.01750837 Eh     10.99 kcal/mol
Translational entropy             ...      0.02152289 Eh     13.51 kcal/mol
-----------------------------------------------------------------------
Final entropy term                ...      0.09525375 Eh     59.77 kcal/mol

In case the symmetry of your molecule has not been determined correctly
or in case you have a reason to use a different symmetry number we print 
out the resulting rotational entropy values for sn=1,12:

 non-linear molecules -----------------------------------
|  sn= 1 | S(rot)=       0.01750837 Eh     10.99 kcal/mol|
|  sn= 2 | S(rot)=       0.01685392 Eh     10.58 kcal/mol|
|  sn= 3 | S(rot)=       0.01647108 Eh     10.34 kcal/mol|
|  sn= 4 | S(rot)=       0.01619946 Eh     10.17 kcal/mol|
|  sn= 5 | S(rot)=       0.01598877 Eh     10.03 kcal/mol|
|  sn= 6 | S(rot)=       0.01581663 Eh      9.93 kcal/mol|
|  sn= 7 | S(rot)=       0.01567108 Eh      9.83 kcal/mol|
|  sn= 8 | S(rot)=       0.01554500 Eh      9.75 kcal/mol|
|  sn= 9 | S(rot)=       0.01543380 Eh      9.68 kcal/mol|
|  sn=10 | S(rot)=       0.01533432 Eh      9.62 kcal/mol|
|  sn=11 | S(rot)=       0.01524433 Eh      9.57 kcal/mol|
|  sn=12 | S(rot)=       0.01516217 Eh      9.51 kcal/mol|
 linear molecules ---------------------------------------
|  Dinfh | S(rot)=       0.01088890 Eh      6.83 kcal/mol|
|  Cinfv | S(rot)=       0.01154335 Eh      7.24 kcal/mol|
 --------------------------------------------------------


-------------------
GIBBS FREE ENERGY
-------------------

The Gibbs free energy is G = H - T*S

Total enthalpy                    ... -12940.92507413 Eh 
Total entropy correction          ...     -0.09525375 Eh    -59.77 kcal/mol
-----------------------------------------------------------------------
Final Gibbs free energy         ... -12941.02032788 Eh

For completeness - the Gibbs free energy minus the electronic energy
G-E(el)                           ...      0.24886506 Eh    156.16 kcal/mol



--------------------------------
SUGGESTED CITATIONS FOR THIS RUN
--------------------------------

Below you find a list of papers that are relevant to this ORCA run
We neither can nor want to force you to cite these papers, but we appreciate if you do
You receive ORCA, which is the product of decades of hard work by many enthusiastic individuals, for free
The only thing we kindly ask in return is that you cite our papers,
We deeply appreciate it, if you show your appreciation for ORCA by not just citing the generic ORCA reference.

Please note that relegating all ORCA citations to the supporting information does *not* help us.
SI sections are not indexed - citations you put there will not count into any citation statistics
But we need these citations in order to attract the funding resources that allow us to do what we are doing

Therefore, if you are a happy ORCA user, please consider citing a few of the papers listed below in the main body of your paper

In addition to the list printed below, the program has created the file raman.bibtex that contains the list in bibtex format
You can import this file easily into all common literature databanks and citation aid programs


List of essential papers. We consider these as the minimum necessary citations

  1. Neese, F.
     Software update: the ORCA program system, version 6.0
     WIRES Comput. Molec. Sci. 2025 15(1), e70019
     doi.org/10.1002/wcms.7019

List of papers to cite with high priority. The work reported in these papers was absolutely
necessary for this run to complete.
Our perspective: the developers of density functionals and basis sets usually get cited in chemistry papers
Good! But without the algorithms to do something with them, the functionals or basis sets would not do anything.
Hence, in our opinion, the algorithm design and method developments papers are equally worthy of getting cited

  1. Neese, F.
     An improvement of the resolution of the identity approximation for the formation of the Coulomb matrix
     J. Comp. Chem. 2003 24(14), 1740-1747
     doi.org/10.1002/jcc.10318
  2. Neese, F.
     The SHARK Integral Generation and Digestion System
     J. Comp. Chem. 2022 44(3), 381
     doi.org/10.1002/jcc.26942

List of suggested additional citations. These are papers that are important in the 'surrounding' of 
of this run, or papers that preceded the highly important papers. If you like your results we are grateful for a citation.

  1. Neese, F.
     The ORCA program system
     WIRES Comput. Molec. Sci. 2012 2(1), 73-78
     doi.org/10.1002/wcms.81
  2. Neese, F.
     Software update: the ORCA program system, version 4.0
     WIRES Comput. Molec. Sci. 2018 8(1), 1-6
     doi.org/10.1002/wcms.1327
  3. Neese, F.; Wennmohs, F.; Becker, U.; Riplinger, C.
     The ORCA quantum chemistry program package
     J. Chem. Phys. 2020 152(22), 224108
     doi.org/10.1063/5.0004608
  4. Neese, F.
     Software update: The ORCA program system—Version 5.0
     WIRES Comput. Molec. Sci. 2022 12(1), e1606
     doi.org/10.1002/wcms.1606

List of optional additional citations

  1. Neese, F.
     Approximate second-order SCF convergence for spin unrestricted wavefunctions
     Chem. Phys. Lett. 2000 325(1-3), 93-98
     doi.org/10.1016/s0009-2614(00)00662-x

Timings for individual modules:

Sum of individual times          ...    75274.783 sec (=1254.580 min)
Startup calculation              ...       12.269 sec (=   0.204 min)   0.0 %
Relativistic integrals           ...        1.367 sec (=   0.023 min)   0.0 %
SCF iterations                   ...      122.626 sec (=   2.044 min)   0.2 %
SCF Response                     ...      251.949 sec (=   4.199 min)   0.3 %
Property calculations            ...        1.388 sec (=   0.023 min)   0.0 %
SCF Gradient evaluation          ...       58.512 sec (=   0.975 min)   0.1 %
Numerical frequency calculation  ...    74826.672 sec (=1247.111 min)  99.4 %
                             ****ORCA TERMINATED NORMALLY****
TOTAL RUN TIME: 0 days 20 hours 53 minutes 0 seconds 726 msec
